Configuration file for spindle and diffusors
402 atoms
1 bonds
0 angles
7 atom types
1 bond types
2 angle types

-100 100 xlo xhi
-25 25 ylo yhi
-25 25 zlo zhi

Masses

1 1.0
2 100000
3 1.0
4 1.0
5 1.0
6 1.0
7 1.0


Atoms

1 0 4 0.0 -0.5 -2.0
2 0 4 0.0 0.5 -2.0
3 1 7 -5.022133956198843 4.581787767008386 -5.155544828493074
4 2 7 51.34748892944048 11.057983059262952 3.844726503719425
5 3 7 35.87839757129021 19.14548007045667 -15.938896374175517
6 4 7 6.769417365823486 2.405318811111293 12.242987853461322
7 5 7 47.00947847863862 -15.819810481817315 22.986700343572032
8 6 7 28.211335570080266 16.172999298708724 6.6349810907767655
9 7 7 2.749137292980606 -7.41550568297415 18.634007458483566
10 8 7 38.84656876835433 -0.0857342530098748 14.785615411660224
11 9 7 15.835623629660116 20.875969620027952 17.307073506141748
12 10 7 38.43602958119895 -18.850597271577456 -20.057387261335684
13 11 7 -10.890759307433846 7.3642206262357135 1.6594270475578838
14 12 7 -4.273614156034839 14.679864892744703 6.478549919430176
15 13 7 -6.737005124590404 -2.662635080235198 23.587982898946215
16 14 7 -9.739616800213565 -21.89630304743168 22.78317105610975
17 15 7 27.068947628521705 -23.342805503275173 8.7669479622894
18 16 7 -10.543275722336798 7.8858496195270575 22.955482353119244
19 17 7 5.477866055391619 11.42611838207334 -14.25719289125703
20 18 7 50.30655464457303 -11.134714290421023 -6.724999718229064
21 19 7 35.428467711780385 -20.062683580806343 -6.926430096853846
22 20 7 51.86339015508461 5.3809952362048215 13.336332653890125
23 21 7 24.76847700509147 -19.259062043495256 -9.361783700422
24 22 7 26.896596976668334 2.62795753426758 11.313273199440928
25 23 7 50.273669843112664 -22.22095180686162 -22.832322005855694
26 24 7 32.0968788651978 4.421550569667463 -21.684469772353584
27 25 7 51.14583942613582 13.091295745358245 -17.63658060757571
28 26 7 -9.725420744226355 16.66092888826128 -21.406926079878282
29 27 7 25.44003814467625 -23.856738271120793 -2.0222061316482396
30 28 7 47.47301579754081 -15.827620392135856 -11.351805887242362
31 29 7 28.61656117083153 11.323035252799876 -19.936608481965905
32 30 7 -4.990811263644641 -10.88332945693691 11.421261556245206
33 31 7 -4.4759627706358955 -0.5015697771833381 -24.31348600587789
34 32 7 -7.028672173155581 -17.045828974815915 -1.8925477810808289
35 33 7 1.7924834604887998 6.528813650433445 20.714361162202486
36 34 7 -5.826231354906515 22.260032394650594 -2.495621954300283
37 35 7 48.00114649453665 11.321887937302634 -4.771526952301201
38 36 7 12.660769177902445 1.54743793779949 2.3531673801268234
39 37 7 -9.751410935371467 21.927689945728652 2.5652725654633315
40 38 7 -6.362319572130922 8.165450620025169 14.416144859476447
41 39 7 41.848576720805426 22.049855547467473 14.249066899210597
42 40 7 45.33636939278623 -3.0515938738227995 -6.579129178427667
43 41 7 1.5094934438231746 20.702724801888237 5.222075816681745
44 42 7 17.985972529525757 -13.62228912484102 6.519936973560586
45 43 7 27.697741716252942 -13.583551791463211 -6.208596524197635
46 44 7 20.306402423216618 22.989210280952626 -9.569497874698813
47 45 7 32.831493733039586 -12.62882427837982 -16.720771761444002
48 46 7 5.217902312539287 -10.873541867537128 10.20642614639199
49 47 7 36.0585728759159 13.139891723629589 6.252147136285508
50 48 7 46.121730828039745 11.222160546449835 20.973868973816764
51 49 7 14.202108712705574 20.6726696327313 -1.9427901516280777
52 50 7 37.94171452469232 0.9584845280217849 -20.413026604463433
53 51 7 5.042318769291413 -18.06044345227702 3.1060938955560147
54 52 7 32.63763240482622 0.36851604948637373 15.68138581620481
55 53 7 13.307612959709353 17.69338605907633 -22.645163559856993
56 54 7 37.915558594598174 -6.891572912248325 -4.3295774936502305
57 55 7 31.593967426184633 -22.135588137876315 -22.399645768521097
58 56 7 39.73932223760339 -19.856111747957904 19.773210822310816
59 57 7 45.93870323934507 -17.829545142010204 -17.46209063938666
60 58 7 -6.325676812228309 10.351105979298943 -15.616713780499731
61 59 7 19.608981544484557 6.213340072528851 15.94745527680626
62 60 7 39.66300262620428 -7.953325406210578 -24.14777433535005
63 61 7 -0.7116135026036083 -18.545687084272824 8.975946704209235
64 62 7 12.414886777977951 -18.210902171514427 2.7437225201951136
65 63 7 39.93524111395754 11.23944623223673 -20.477377910850947
66 64 7 28.02952678079933 -15.928885069113871 20.61161136344547
67 65 7 34.939458822566465 -0.7793886412495432 -2.309372209729016
68 66 7 23.039585571692818 -4.883328488882469 -9.828470451775226
69 67 7 -0.24480616267276645 -8.964827853989272 -0.6078088310065795
70 68 7 4.853314490898363 5.827110836895898 2.0004604079461785
71 69 7 -0.6412440151872403 22.9615176838075 -18.514367108622537
72 70 7 40.44056842723264 4.292631000134879 -11.523962254412488
73 71 7 -6.259473150233756 -7.406741609363742 -16.366813047420962
74 72 7 42.52475054368406 -23.23340801283058 5.666549379956745
75 73 7 11.184515302245519 -10.762358181613887 -20.436216912765552
76 74 7 29.90608890741749 -11.945675322679685 16.12470209160943
77 75 7 21.948767552671917 2.4184448451955305 -24.299652940078673
78 76 7 39.44645856532391 15.526057049304491 20.96860346638698
79 77 7 6.500199227821067 24.356133705656312 -19.791230042945106
80 78 7 29.980709921335333 -15.90666701235059 -22.500696532875498
81 79 7 31.68653867190924 7.998407578772714 -5.672267906440119
82 80 7 47.37505851104282 -4.920878051580722 -19.57520522654147
83 81 7 33.99521974496703 -3.076878446722162 -14.455807050715057
84 82 7 7.333195924109656 -4.63837731852124 -6.914390564191425
85 83 7 28.574750606665994 -5.41248608331254 18.757824677660487
86 84 7 45.140944538449666 19.705370523666517 -1.7432991770955546
87 85 7 31.248716064044736 -19.162843863250504 -2.116216113009333
88 86 7 7.221326137162972 10.76537582394078 14.214297574500002
89 87 7 -4.905312691085541 -23.155444869228084 18.448281232076702
90 88 7 23.590185734927857 9.60051947276773 -6.782236620283392
91 89 7 13.013316549571798 -18.528126507228233 21.640028223359955
92 90 7 38.153680458636835 7.57511737558568 1.471902677346609
93 91 7 31.062847623936406 15.232571482702227 -4.633106123334986
94 92 7 1.5370173330123116 5.003112217697812 -17.549906042881272
95 93 7 -4.780655484932396 4.482950200811889 22.678560252043013
96 94 7 3.711136137507644 20.990520166458268 17.079190399876886
97 95 7 49.901141244493324 3.0204368813368063 6.932744250734782
98 96 7 -7.0832216901611815 -16.303188541698717 -15.532870468223017
99 97 7 14.185275147707475 -24.007533673859978 13.552818904970017
100 98 7 7.9294062512977845 -16.014307425637003 -17.667575177075495
101 99 7 11.962730225660668 -13.335306926882867 -9.125790113198898
102 100 7 44.85777407363041 6.316664858117953 -18.19774189630523
103 101 7 29.50343126691034 -2.9035176932344484 -7.995996550096667
104 102 7 34.5890996740467 7.416983417306685 -11.157484930749883
105 103 7 12.262983524341294 5.6494601799618955 -2.7527337372852045
106 104 7 10.850844212397256 0.8532057309176473 -10.772998602186195
107 105 7 0.0011553765590619491 -2.643988875785304 -14.581273916594995
108 106 7 11.054752037066557 13.695084621137937 6.942064475055794
109 107 7 40.66450517955209 7.113740411820199 12.734340365869919
110 108 7 20.80890657345013 -9.161815500601037 -18.868123840511537
111 109 7 29.21071922238086 1.2707287415144037 -1.063937698710852
112 110 7 -7.37346869858667 -0.042262331574757894 8.256515829008265
113 111 7 39.22938793303646 -0.02915550405490208 4.142247871995959
114 112 7 38.791839476341195 -14.3740715045398 -14.381181378559242
115 113 7 -8.010819945865485 -18.508851341763016 -7.664118757682861
116 114 7 24.643488250409966 -18.62711602939136 2.912487453684971
117 115 7 30.289405732766312 21.17990554154565 14.818510750971086
118 116 7 45.24742096126577 -11.57481771262183 3.38519734981136
119 117 7 21.762892240597488 7.575123613460558 2.3881496663257593
120 118 7 22.706954505321363 -15.827304301319854 15.202174451213395
121 119 7 -9.20728311742327 16.725003960312605 23.159807449897848
122 120 7 32.265346604570325 20.041522853617757 21.20074469694533
123 121 7 3.657440669323762 -24.043755216506167 5.434679569293571
124 122 7 15.864780139547406 3.778523055698166 21.856446140380854
125 123 7 41.97503381250487 23.320809650691572 2.2120525332548837
126 124 7 15.66044096595521 -3.1083301457641426 -9.460225250298672
127 125 7 -0.38632144071276286 7.6425591461986855 9.754401658746922
128 126 7 14.787294779888796 -7.747049367483154 -0.5657537363963314
129 127 7 28.050659252049158 19.549343519931526 -17.89152382530477
130 128 7 45.17015723032945 -6.16475016379864 16.199128604823244
131 129 7 48.9122368044803 -16.82566934344531 14.034109737489523
132 130 7 -1.6209316446740942 -16.0659055719283 -19.79801546119057
133 131 7 21.00846043646915 -9.713951663823 23.565846759166
134 132 7 2.9962451560755525 3.3113601530672163 -10.85619166274552
135 133 7 44.53459187962953 10.548589288478468 -13.469588811833678
136 134 7 25.666466257671182 23.175815910122232 0.024188351054508672
137 135 7 8.121578013095426 13.714401137103998 -20.027859711609416
138 136 7 -1.7764310480552226 -10.433904982714257 -8.107716337501298
139 137 7 1.0476179010138864 0.2678814680955739 16.617518674784492
140 138 7 42.266506165655876 0.6895650461691503 21.42805675377077
141 139 7 10.246852047830586 -14.515160085449297 -1.7848231505237209
142 140 7 -2.0789332555411377 -6.488195843731294 -22.807579428175796
143 141 7 24.878009802327732 -5.608457545842892 8.00891511807383
144 142 7 34.63064061502472 -23.48633759583195 24.322465070405705
145 143 7 44.14804476356258 -5.754932038793143 -0.6600158630314148
146 144 7 30.95592673161842 -0.6829840963752112 7.850878329493568
147 145 7 15.055146056879739 -23.627203775950875 -16.13119530012588
148 146 7 14.746598574615636 14.143801985913463 20.237725181354037
149 147 7 26.927605379679264 -24.119233821998506 -16.636435388754812
150 148 7 45.103208528014285 17.541195323162086 9.414642070745963
151 149 7 4.007133517333299 -2.636252510886724 7.858363658667564
152 150 7 9.222984265564786 -16.39538851617224 10.823686071073432
153 151 7 -8.67137950228441 -15.738852507515423 6.6521209574803315
154 152 7 38.20138183865166 -7.595916176483382 3.739081806223446
155 153 7 35.35028521733531 19.063993425031747 4.124427344703861
156 154 7 8.251582808446305 -23.40543082099956 10.536704021227152
157 155 7 6.861397054163724 6.632248778655111 -20.578019209269787
158 156 7 -8.56108629278884 -7.95083374674763 -2.8313467022979246
159 157 7 -0.9157888441520114 -20.393097318699088 -13.663066650141953
160 158 7 31.91707256957411 -23.2353442378479 -12.591885523351129
161 159 7 13.330912642993468 -15.219159702262901 -14.955076845886422
162 160 7 28.384377880347557 11.413911270065405 18.3566179780357
163 161 7 21.024436498493998 1.8470672138119646 -5.182023867634115
164 162 7 43.46718966949086 15.201776531715637 2.690444592757828
165 163 7 33.04426649431458 13.207497524082925 14.319068134237611
166 164 7 36.64150090062425 -13.865832516500081 -23.996366611013144
167 165 7 -9.446482570248875 23.911955017728218 -20.721648163542138
168 166 7 42.221524020528655 -20.933535806597817 11.947305885835206
169 167 7 38.27856434702693 -13.690729221874344 17.810511810946558
170 168 7 19.872224445404136 14.03398595320315 -0.16352625853778946
171 169 7 49.90542017196559 -22.04146946441497 22.98225679144725
172 170 7 -8.888928591735127 0.3741210327559301 2.047201564550935
173 171 7 6.088703360287116 15.696129543296266 0.2282913436705094
174 172 7 13.053635985195125 3.2496257143149663 11.106730290097104
175 173 7 8.059357657213166 -5.219952144572719 -17.161150273565518
176 174 7 18.16907802852875 10.046991971338727 11.18442195345905
177 175 7 1.7448024414391128 0.4098160202618324 -1.0551304912714663
178 176 7 3.2879883670502323 21.11260987374346 -13.708433289071934
179 177 7 24.788939197112242 24.01900077285871 16.98107693960769
180 178 7 31.92698901941165 4.30151885183578 22.480958932499966
181 179 7 12.163541879711637 8.898862873026992 18.380571653648794
182 180 7 27.847621970744477 -11.694417443655018 5.158271044724977
183 181 7 24.206399557401006 14.841333920186166 -14.857445009747892
184 182 7 -11.528977615207893 15.465428264885773 -3.830382731197581
185 183 7 -2.3733632725200664 -21.628625931947482 -5.209345903965485
186 184 7 25.49041703385096 1.4843247096943522 -17.925380466456538
187 185 7 8.4461167176052 -22.853835919141343 -18.353731167865877
188 186 7 6.948009178405375 -14.513275366281093 17.390842961556636
189 187 7 27.11081025085393 3.3336028702638743 -9.81992770347182
190 188 7 25.055556499821314 5.719063140737898 23.145706781370414
191 189 7 33.46853467160784 8.816117019455461 -17.25415820631444
192 190 7 -2.0634634415945143 18.983715824019995 22.239313884261378
193 191 7 37.83779259008127 6.30211039370494 18.76918007085044
194 192 7 44.903539063414875 0.43826015836605237 -24.318352382881983
195 193 7 46.32830631636039 -13.467993208862964 -2.883182640218248
196 194 7 33.75173697174172 -23.0289338901757 10.016873356785865
197 195 7 38.8837146052012 -24.384175835326154 -10.435053508519841
198 196 7 4.858510306652345 -4.858385837718522 -22.514626043624652
199 197 7 21.093078453726086 -24.291818598011318 5.368363581286012
200 198 7 18.400488432202092 -13.303927987627178 -6.28651211225597
201 199 7 -5.616111810452814 18.349863391691215 -7.195471705109103
202 200 7 -1.152537426203665 16.510526309410146 -21.289500286412757
203 201 7 12.43736804556918 20.528794456546642 7.345053775592753
204 202 7 12.123172009137946 -10.72876736927595 23.887410969437113
205 203 7 1.1776466130514436 -23.59082233697702 21.929887576740825
206 204 7 31.226904008041437 24.247010119029177 -14.406598142915115
207 205 7 7.12824146909356 23.369579221338647 -7.881006269548177
208 206 7 14.806622085729593 -9.347604529070233 -13.43329359257764
209 207 7 -2.072606898707768 6.425793262721619 3.99474186942248
210 208 7 43.31250577065909 20.893384907866356 22.266791622259824
211 209 7 -0.36747276855370004 14.619908541430327 -8.372742559419383
212 210 7 -11.476829749508845 -19.440835486049625 -21.73783311180783
213 211 7 -5.710616843049884 -1.1864701383333838 15.036081817849848
214 212 7 3.8692906412983845 -10.893328900262034 -21.50933440998684
215 213 7 21.136521849139484 -19.737272991206225 -18.40974695260174
216 214 7 45.2983852299104 1.921137858854646 -0.41253013184206466
217 215 7 -9.978421011745677 2.3271118033066465 17.410220748882303
218 216 7 20.26016211746419 19.01019043836049 9.185261597380503
219 217 7 15.585882951461443 9.638640125700576 5.532526500026794
220 218 7 49.3708521212754 1.2959620443821258 -14.06104040073034
221 219 7 50.153667982544206 24.049824944282065 11.455516935202347
222 220 7 14.838774654414468 21.961382215675023 -15.181512689623409
223 221 7 31.682627758730305 -9.247104818096396 9.94735763251758
224 222 7 19.405172025419873 -23.247725547847146 -2.2750990703025664
225 223 7 -1.6573372624034945 -1.3179790777609242 10.029550876349134
226 224 7 -10.752839781505685 -0.9327120096470161 -20.315828231855864
227 225 7 14.837998283005629 -16.851118358825133 -23.123782433057695
228 226 7 50.32904752459291 22.0164804537498 21.415726095401162
229 227 7 7.549806642654428 -17.465659166137332 -23.93951219753537
230 228 7 50.933347463478356 22.375060986342746 -20.335560796280756
231 229 7 38.07551499930957 -11.891701268748708 24.28395732442022
232 230 7 9.245844921401261 -22.422392743879055 -2.0005247945792064
233 231 7 -11.645497054628446 6.166173538757739 -14.704661207834565
234 232 7 -4.310474580403117 10.935392143863886 22.169342039596962
235 233 7 -1.4256021942259203 -7.481979418401842 5.445060445610952
236 234 7 16.5504631476114 -9.753513681353436 18.327536879154096
237 235 7 8.13942397500993 -23.309633559411168 20.278898980694336
238 236 7 51.64495006243371 0.31005985381053236 1.3029516520653672
239 237 7 34.431218810123646 -10.50004668768177 -8.045306053349954
240 238 7 20.66333446874838 -4.3305725269117765 16.407934510450872
241 239 7 44.26333314888858 -5.227285799738208 10.211667436065426
242 240 7 -2.5611114026265156 -17.258081096093562 2.180400224384787
243 241 7 -10.13542386823896 -11.79319368324626 -18.591280045488546
244 242 7 40.663018392421904 -24.209235850220495 -17.765229596694493
245 243 7 25.366516878394272 2.414664551947066 17.506137182182954
246 244 7 28.946379812659913 -6.10977984731025 -19.890629130671307
247 245 7 47.11985757910467 -2.7996795773329524 23.151843491226792
248 246 7 23.993639016062822 -20.610784038008486 18.901125870463474
249 247 7 35.176263244721056 -4.2866281833809055 10.704868124295444
250 248 7 4.826006435130886 -14.229376736466543 -8.562157691302463
251 249 7 50.30352070513743 -0.8248224251674934 15.874195405563356
252 250 7 17.226322440814705 14.337119550279603 -6.441781121474509
253 251 7 51.69712945978859 11.769493407674766 11.300752797664401
254 252 7 40.27636356108671 -16.087351555086727 8.13208576134192
255 253 7 4.772017829782971 -17.864641407771757 21.94298334223221
256 254 7 -9.175520881830334 2.1716683757174735 -10.347336524387122
257 255 7 -8.991644097751912 -6.254850266516005 12.9091175971408
258 256 7 17.9728272826722 0.9936131692446928 -18.4029181921766
259 257 7 31.2586949333418 18.860207213429305 -23.712617378254706
260 258 7 15.83319977532474 12.478846592827097 -14.435775935253679
261 259 7 -6.795648530408332 -19.60443790474221 13.375490379082976
262 260 7 45.29325853836239 15.251434898282312 -18.276167504023753
263 261 7 33.598804615047776 -16.499719190430675 5.711042905581877
264 262 7 33.3617832058334 -16.904801753647277 16.029843019520932
265 263 7 13.675326396340225 -8.033230412250248 5.9533020706625095
266 264 7 47.73856768427002 -24.116611657408892 0.24076033991210366
267 265 7 7.462236150580349 -19.790945259001152 -7.393760604578127
268 266 7 28.76776983947768 4.994219736227155 6.097259457955211
269 267 7 12.418667874510312 1.6576184649518915 -21.99763648198082
270 268 7 33.15965803003038 -2.1169213577102326 23.267875476692595
271 269 7 51.08287195022626 18.059006351417217 4.186267398754591
272 270 7 -8.644881169080158 -10.251482757831269 24.334872166986834
273 271 7 51.22343993213283 -20.853235685899886 -7.257464454058393
274 272 7 8.348435110710021 -12.464319741774037 5.121829254095601
275 273 7 47.87547563546569 10.01426863550467 -24.205905675911527
276 274 7 10.811802929575173 21.91803090090381 21.228750737576938
277 275 7 7.097852710192129 17.45277535266885 11.638739629670965
278 276 7 -8.80497813566108 -11.803404942293364 -10.817910640477981
279 277 7 51.86079632132609 18.29736541536566 -6.6165409056699005
280 278 7 4.901896492773194 16.87101167834637 -5.804932858139342
281 279 7 8.866151390548303 -3.3522079272801513 22.961553758576258
282 280 7 -11.83324803017171 19.19688079563698 13.320730763357211
283 281 7 49.665984333830664 -10.55446348841899 -14.405646202689164
284 282 7 46.919271033740145 -18.24391340779352 8.115798596145993
285 283 7 -4.411002226065293 -23.95798760788189 -23.77693065125886
286 284 7 -3.220870100193693 -7.958820292499979 20.540333378588926
287 285 7 13.254648958403578 23.874355044320147 -20.935228444250853
288 286 7 -0.9798720148306757 13.390407051986855 11.654726888534235
289 287 7 8.14756461523142 -6.450932128878414 -0.7328293659587715
290 288 7 5.4695333075306145 11.671522543933904 24.09465323502694
291 289 7 -3.2441757992905025 0.3603189516270824 -9.570744486802173
292 290 7 -4.585071884034765 10.32640174205261 -7.3049528323551804
293 291 7 -7.6800949606519495 21.85278287766029 18.94459692294884
294 292 7 -1.6094543508037802 -13.988737283494984 16.134798646365283
295 293 7 4.381984427786019 22.966469747839945 0.30723891703194184
296 294 7 -7.659506771366221 -23.546893916067923 4.8688118953127955
297 295 7 0.844412986117117 -10.957185179316319 -15.753096334715833
298 296 7 20.537904107220918 19.829779019080192 -19.206110680975726
299 297 7 19.52055780487623 -22.151831171657864 23.807734176866063
300 298 7 23.294155414077963 17.530188588814205 -7.5368038951442955
301 299 7 30.56950629020693 12.744122434394775 -10.411146412626994
302 300 7 46.239851187758944 23.262506547109957 -13.006116797635086
303 301 7 40.95478502713498 -17.504424782625193 -6.643296306051585
304 302 7 41.10126454180541 19.589156514728252 -12.25951386830737
305 303 7 43.565444444078246 6.72416729861051 6.279006560503241
306 304 7 30.03001680389916 23.69441977294828 8.286631239134692
307 305 7 31.854072030189755 -6.687401697098206 2.149604115891737
308 306 7 16.186518626761043 5.513941007893834 -14.831212829152031
309 307 7 46.17541686573259 -11.481551846601322 -23.475306644196543
310 308 7 29.59376572633861 -9.354437058531024 -11.577125511416778
311 309 7 41.87016066995053 -11.49373479042662 12.59211184551441
312 310 7 42.15991778955653 -10.323067587785241 -10.269438084456672
313 311 7 51.90574037414537 6.278323006946842 -16.887283147393248
314 312 7 -11.736133348347522 -12.264186713430623 0.539417946711005
315 313 7 -1.175774208194511 9.425917296707887 -21.71266295385025
316 314 7 25.139272526937546 -6.281274460311742 0.10412378244941323
317 315 7 46.10054638597357 17.196433776012974 -9.080559171611403
318 316 7 46.63078227679892 6.857569052472819 16.731619661294907
319 317 7 22.025542225380136 12.633662752134327 23.93899057274752
320 318 7 1.6182324341415182 -21.51496901069889 -19.457200819541928
321 319 7 36.363016642283284 19.29244552114681 -4.015526374714746
322 320 7 -8.56300677314351 14.028020722660187 14.755379534680067
323 321 7 14.174843628121529 -20.87941283383911 -10.396276599417861
324 322 7 11.008523942522203 9.78833349262289 -11.826381191358545
325 323 7 -11.542535309471173 17.21525862216685 -10.092046813812697
326 324 7 40.83339703790781 -8.826406198202786 -17.470522964130623
327 325 7 40.12810722520165 19.90119376529774 -24.151512113102292
328 326 7 5.840580654376911 8.227168018933071 -3.5178582922204633
329 327 7 3.2322934084057025 -17.351620492174106 -2.865600388012151
330 328 7 -7.673429889770176 -23.55953719297435 -2.052187753091509
331 329 7 -11.5516952622474 -23.918097236486 -8.94590240154443
332 330 7 35.02386260424726 20.252897466010488 10.791364283227885
333 331 7 -9.491368298757465 23.76131359477325 -7.395508272888392
334 332 7 21.109925802094196 16.62679200177101 14.657128852369219
335 333 7 14.258061146019347 -23.9499459701539 5.727173968460299
336 334 7 22.992295268680948 -14.146099615931377 -23.420570150877438
337 335 7 40.053559053748344 8.527351858739252 -4.64448718019079
338 336 7 21.898342427293557 21.2465334404038 21.986680048311968
339 337 7 21.68792968286352 -13.634081752298274 -13.3939100857395
340 338 7 37.442444883356906 0.4086922489243996 -7.776414962916913
341 339 7 17.661575143808367 0.2914751037719796 6.632195050447702
342 340 7 19.648896969150943 11.094882112981836 -21.69797880464356
343 341 7 -5.0654054880682295 22.794593753109545 12.018054046553516
344 342 7 33.497601168079704 6.212126545964157 10.94100980243131
345 343 7 35.262355879163046 -8.632854835425935 16.071431552362085
346 344 7 -7.993143148097609 -22.749881592070313 -17.519772209558393
347 345 7 6.168911700370739 24.116935374243113 9.60520412664738
348 346 7 38.41473189915716 9.685556968199663 24.261347302347417
349 347 7 37.902724631876225 -13.562638286398421 -2.722201388133982
350 348 7 -3.467437949719894 -14.740962530952595 22.446633732297236
351 349 7 28.96895050363144 12.88844951449979 1.5481586225109787
352 350 7 24.987313752877135 -23.863264815954995 -22.45254020249067
353 351 7 -11.4062702386153 8.765587027488635 -5.018116569087734
354 352 7 51.234117027621835 -23.535253139453165 15.902667332183
355 353 7 22.28921157379122 -17.45167218343417 -3.1816388971401963
356 354 7 15.55831225699519 -3.4876095728061394 -22.544506889422205
357 355 7 1.306094840257579 14.932475311581804 17.148446028014007
358 356 7 29.828847471423636 -8.464555993914464 -3.2701403527372257
359 357 7 49.620476100348526 -16.990450540426338 2.2005137508642534
360 358 7 47.22248618869608 -3.152181121544544 4.601386404789512
361 359 7 -11.624741985499753 -4.73830436039902 -11.375760841830116
362 360 7 51.942870259143845 -12.039665087035331 20.89223777817839
363 361 7 -0.2229017174153185 -21.774368168441296 14.031703222553766
364 362 7 11.932401248601849 19.367587297390813 -7.346633313801316
365 363 7 50.277807934344416 17.406961747375817 -23.903581799126385
366 364 7 14.231003997020334 -8.71915657180347 12.377849498527219
367 365 7 45.97920746236292 3.1831294516559936 -6.57973437754459
368 366 7 -6.526077137023599 -11.87287557496209 -24.326782334205983
369 367 7 32.20130051900053 24.397578338600965 -2.2168130580777436
370 368 7 19.631904861060523 -2.8446396055303502 1.4258950271387896
371 369 7 8.149840847921912 3.390669906273839 22.74894494046351
372 370 7 14.6786931635902 -23.92284870255322 -22.79657357479105
373 371 7 50.559504797180985 -11.160897236644352 6.990600353029638
374 372 7 23.88701823782541 9.322939878598639 8.174390234805557
375 373 7 -8.123680872774216 -6.2244435621492435 3.2748324458784026
376 374 7 32.818934682923626 -12.627555459515898 0.8509887403160938
377 375 7 19.5237631461794 -7.352715055735711 -5.117193281196418
378 376 7 50.161223372312726 -5.57555312779229 -11.026356336429513
379 377 7 -8.937552104889381 -14.511322938523683 19.04215171311605
380 378 7 8.204830224890244 -8.637599000546256 -11.488451456942512
381 379 7 41.853403415431565 24.26083273442658 -18.434161784614382
382 380 7 -11.077984736145172 5.72536955146084 -24.11658718386336
383 381 7 43.5272511437423 13.054939265589177 15.838552883734671
384 382 7 20.787337681672703 -9.47265668222899 11.624256196466582
385 383 7 -11.144615223012636 13.550675835997275 5.657809614321117
386 384 7 43.36924741980379 -17.568944527807815 0.6230593603211361
387 385 7 21.07860733790511 -23.284863940401802 13.130965566084704
388 386 7 -3.150716436039975 24.169148899046405 -10.049494016719187
389 387 7 51.827139737470524 -15.825358272410892 -22.077575762468513
390 388 7 37.549149982650725 13.677537511412694 -7.765092846751138
391 389 7 -1.7991369562955768 16.063304063382972 -2.638514603927394
392 390 7 -4.845052904330501 -1.1327918845714855 -17.933114013634086
393 391 7 2.4274610663529685 -1.1526129569194303 22.33495622031387
394 392 7 24.05482146036333 -6.09225624331442 -24.062162672161367
395 393 7 36.34531216475504 -22.581958738377693 3.955264936511078
396 394 7 18.47745762768566 7.535169620401067 -2.6490428308196137
397 395 7 27.33595292871223 22.88951794728466 -7.574790941440771
398 396 7 31.542104560817208 11.180256745978426 23.94482895629772
399 397 7 50.92670275675486 14.727759308587679 17.621364789304465
400 398 7 12.453175134830833 15.208087742865622 0.15477644053595085
401 399 7 16.163498742933236 0.03560083010184201 16.092022638793587
402 400 7 5.348134213064345 -20.717152052457458 -13.419395892534235

    
Bonds

1 1 1 2